# LAMMPS data file 

50 atoms
1 atom types

-5.661 5.661 xlo xhi
-5.661 5.661 ylo yhi
-5.661 5.661 zlo zhi

Atoms

1 1 1 0.000 -3.812 0.054 1.486 
2 1 1 0.000 -174067.656 385666.458 693013.174 
3 1 1 0.000 0.564 -1.674 4.892 
4 1 1 0.000 1.758 -0.681 -3.065 
5 1 1 0.000 2.515 -0.993 -0.562 
6 1 1 0.000 -3.975 -5.436 4.605 
7 1 1 0.000 5021.768 51190.184 -62780.037 
8 1 1 0.000 0.398 0.717 2.459 
9 1 1 0.000 -5031.551 -51193.268 62770.181 
10 1 1 0.000 0.628 -3.713 3.342 
11 1 1 0.000 5.510 1.422 -4.471 
12 1 1 0.000 117.605 102.528 191.900 
13 1 1 0.000 -4.852 3.826 -3.880 
14 1 1 0.000 728070.550 184170.607 281444.775 
15 1 1 0.000 -4.031 -0.462 -2.955 
16 1 1 0.000 -31.380 0.723 -193.800 
17 1 1 0.000 -3.903 1.529 -3.124 
18 1 1 0.000 -82.290 -94.402 2.895 
19 1 1 0.000 2.592 -4.605 -4.437 
20 1 1 0.000 598.823 -58.627 -92.603 
21 1 1 0.000 3.141 -1.522 -0.157 
22 1 1 0.000 4.047 -2.567 -5.464 
23 1 1 0.000 3.317 4.235 1.694 
24 1 1 0.000 -1676.866 14602.879 -3750.170 
25 1 1 0.000 3.324 -2.527 4.344 
26 1 1 0.000 -4.603 2.652 1.577 
27 1 1 0.000 -0.675 -2.551 0.897 
28 1 1 0.000 -2.273 3.940 -5.048 
29 1 1 0.000 2.996 -3.389 2.098 
30 1 1 0.000 -3155.396 -4231.065 -1605.017 
31 1 1 0.000 1.752 -1.370 -5.099 
32 1 1 0.000 -4.201 4.452 2.690 
33 1 1 0.000 -2.840 4.826 0.463 
34 1 1 0.000 -592.947 48.354 103.086 
35 1 1 0.000 -0.946 -2.757 -1.531 
36 1 1 0.000 2.290 3.880 -2.831 
37 1 1 0.000 4.425 2.104 -1.731 
38 1 1 0.000 3151.809 4240.469 1600.494 
39 1 1 0.000 -0.320 -3.422 -4.174 
40 1 1 0.000 -2.356 0.554 -3.915 
41 1 1 0.000 -4.063 4.725 4.152 
42 1 1 0.000 -4.795 -3.763 0.720 
43 1 1 0.000 -726367.459 -198769.759 -277690.461 
44 1 1 0.000 -2.449 -2.221 5.197 
45 1 1 0.000 -1.585 1.945 1.062 
46 1 1 0.000 0.251 1.881 3.163 
47 1 1 0.000 174058.804 -385660.737 -693015.489 
48 1 1 0.000 5.223 -5.156 4.205 
49 1 1 0.000 2.360 -1.532 3.025 
50 1 1 0.000 1.670 4.168 0.373 

Velocities

1 0.001 -0.024 0.001 
2 -173188.060 383740.148 689545.006 
3 -1.239 12.124 4.087 
4 0.001 0.017 0.070 
5 -1162.819 982.229 -752.964 
6 2.361 26.419 11.717 
7 5013.309 50946.388 -62471.094 
8 0.965 -7.654 -4.614 
9 -5012.108 -50945.965 62471.805 
10 0.010 -0.001 -0.017 
11 0.008 -0.013 -0.020 
12 130.514 109.921 197.864 
13 -15.534 1.232 7.390 
14 724426.983 183253.841 280047.450 
15 -0.038 -0.146 0.015 
16 -40.220 -2.360 -207.603 
17 0.011 -0.007 -0.177 
18 -90.286 -107.592 9.622 
19 0.843 -12.051 -4.565 
20 247.174 730.937 -629.623 
21 1159.008 -978.716 756.625 
22 -1.113 1.752 -3.581 
23 -3.839 7.418 -13.531 
24 -1719.229 14386.285 -3923.138 
25 -1.403 -0.471 -1.212 
26 -23624.090 -22200.342 21358.005 
27 -0.015 -0.001 0.010 
28 1.732 0.172 -0.636 
29 0.269 -0.169 0.268 
30 -3144.882 -4232.890 -1592.259 
31 0.138 0.021 0.087 
32 -0.244 -0.583 -2.794 
33 0.014 0.006 -0.001 
34 23221.795 22499.083 -21442.642 
35 391.216 -646.165 704.235 
36 0.013 -0.009 -0.020 
37 0.022 0.120 -0.109 
38 3107.763 4211.276 1598.121 
39 0.042 0.003 -0.057 
40 0.094 -0.021 -0.049 
41 -0.374 -28.072 -3.513 
42 -0.233 0.571 -1.225 
43 -722742.556 -197789.375 -276307.368 
44 -0.017 0.001 0.010 
45 0.011 -0.011 -0.007 
46 2.766 4.179 1.063 
47 173000.471 -383975.858 -689358.331 
48 41.015 14.225 7.763 
49 -0.058 0.101 -0.043 
50 -0.092 -0.005 -0.080 
