# LAMMPS data file 

50 atoms
1 atom types

-55.028 55.028 xlo xhi
-55.028 55.028 ylo yhi
-55.028 55.028 zlo zhi

Atoms

1 1 1 0.000 -46.354 11.454 7.546 
2 1 1 0.000 -8.735 -21.431 -43.447 
3 1 1 0.000 14.013 30.042 51.987 
4 1 1 0.000 -30.986 -32.175 -28.521 
5 1 1 0.000 9.417 -1.444 -27.350 
6 1 1 0.000 -28.268 42.253 10.083 
7 1 1 0.000 -33.692 -43.794 18.236 
8 1 1 0.000 43.952 51.652 -44.966 
9 1 1 0.000 -53.773 -14.074 13.222 
10 1 1 0.000 -38.892 -46.379 31.381 
11 1 1 0.000 -39.738 48.221 -3.756 
12 1 1 0.000 -26.438 7.416 -1.949 
13 1 1 0.000 -50.016 12.699 12.510 
14 1 1 0.000 -10.237 -26.068 49.395 
15 1 1 0.000 21.954 -4.722 51.691 
16 1 1 0.000 27.952 47.451 26.182 
17 1 1 0.000 -24.153 49.272 -5.512 
18 1 1 0.000 -15.040 43.103 34.890 
19 1 1 0.000 11.559 13.232 -51.813 
20 1 1 0.000 -10.724 -13.819 32.390 
21 1 1 0.000 -50.360 38.855 29.359 
22 1 1 0.000 11.081 6.701 42.956 
23 1 1 0.000 4.806 -23.222 -43.251 
24 1 1 0.000 13.414 30.100 -5.101 
25 1 1 0.000 -42.627 -30.760 -54.997 
26 1 1 0.000 -49.703 47.189 -31.111 
27 1 1 0.000 10.342 -35.942 49.012 
28 1 1 0.000 -10.219 6.770 -5.820 
29 1 1 0.000 -2.026 49.849 -12.612 
30 1 1 0.000 0.251 -20.337 -29.844 
31 1 1 0.000 37.188 14.696 -51.947 
32 1 1 0.000 51.634 -39.720 6.117 
33 1 1 0.000 -17.300 34.905 -9.263 
34 1 1 0.000 -6.920 -29.642 -41.149 
35 1 1 0.000 -50.826 -14.518 -32.289 
36 1 1 0.000 -31.547 -26.509 45.586 
37 1 1 0.000 39.437 -16.845 2.734 
38 1 1 0.000 -43.803 -42.622 -48.549 
39 1 1 0.000 -19.971 1.210 24.207 
40 1 1 0.000 52.579 -54.604 36.719 
41 1 1 0.000 49.167 22.246 46.110 
42 1 1 0.000 -0.160 29.910 -3.703 
43 1 1 0.000 -9.421 -37.025 -29.824 
44 1 1 0.000 5.495 37.777 51.532 
45 1 1 0.000 27.578 -18.733 31.341 
46 1 1 0.000 -47.264 8.016 -45.555 
47 1 1 0.000 -44.807 36.450 31.608 
48 1 1 0.000 45.539 42.089 15.583 
49 1 1 0.000 -32.033 49.434 -25.674 
50 1 1 0.000 -26.679 4.378 10.112 

Velocities

1 0.001 -0.010 -0.006 
2 0.011 -0.020 0.023 
3 0.027 -0.001 0.020 
4 0.024 -0.009 -0.019 
5 -0.000 0.016 -0.020 
6 -0.007 0.011 0.001 
7 0.008 0.010 -0.014 
8 -0.012 0.029 0.002 
9 0.008 0.001 -0.010 
10 0.005 -0.016 -0.016 
11 -0.020 0.024 0.013 
12 -0.004 -0.007 0.006 
13 0.002 -0.017 0.011 
14 0.012 0.009 -0.002 
15 -0.012 -0.000 -0.006 
16 0.003 0.005 0.005 
17 -0.004 0.016 0.008 
18 0.011 0.018 -0.010 
19 -0.005 0.003 -0.007 
20 0.002 -0.006 -0.016 
21 0.004 0.017 0.007 
22 0.015 -0.011 -0.001 
23 -0.004 -0.005 0.028 
24 -0.007 -0.016 -0.005 
25 0.004 -0.010 -0.019 
26 0.021 -0.004 0.016 
27 -0.003 0.019 -0.003 
28 0.020 0.030 -0.011 
29 -0.021 -0.005 0.014 
30 -0.003 -0.013 -0.008 
31 0.009 -0.023 0.012 
32 -0.022 0.010 0.025 
33 0.012 -0.012 0.010 
34 -0.002 -0.015 0.004 
35 -0.019 -0.007 -0.000 
36 0.013 -0.004 0.010 
37 0.006 -0.011 0.003 
38 -0.010 0.020 0.007 
39 0.011 0.002 -0.011 
40 0.003 -0.008 0.017 
41 -0.009 -0.002 -0.008 
42 0.019 0.013 0.009 
43 0.007 0.011 0.008 
44 0.015 0.034 -0.019 
45 0.006 -0.017 -0.011 
46 0.009 0.017 -0.004 
47 0.011 0.007 0.014 
48 -0.001 0.009 -0.013 
49 -0.011 -0.003 0.011 
50 -0.002 -0.014 0.000 
