# LAMMPS data file 

50 atoms
1 atom types

-30.000 30.000 xlo xhi
-30.000 30.000 ylo yhi
-30.000 30.000 zlo zhi

Atoms

1 1 1 0.000 -26.346 12.785 -21.058 
2 1 1 0.000 -22.502 14.205 -19.761 
3 1 1 0.000 14.034 -14.662 -24.598 
4 1 1 0.000 10.798 18.457 8.401 
5 1 1 0.000 6.128 -25.053 -1.461 
6 1 1 0.000 -3.189 17.771 -11.169 
7 1 1 0.000 8.057 -25.864 -6.706 
8 1 1 0.000 10.305 11.492 -7.824 
9 1 1 0.000 4.665 -22.567 -4.329 
10 1 1 0.000 26.891 -24.190 -20.573 
11 1 1 0.000 22.863 2.097 -20.031 
12 1 1 0.000 -27.900 -1.986 -24.077 
13 1 1 0.000 -10.560 -19.929 2.930 
14 1 1 0.000 29.091 12.564 11.185 
15 1 1 0.000 -22.539 -25.803 -9.923 
16 1 1 0.000 -8.182 -23.815 23.474 
17 1 1 0.000 14.213 2.972 22.266 
18 1 1 0.000 -1.700 29.487 -4.243 
19 1 1 0.000 -28.806 -11.760 7.477 
20 1 1 0.000 -19.167 26.312 2.446 
21 1 1 0.000 -9.850 6.184 4.252 
22 1 1 0.000 4.791 -10.536 13.339 
23 1 1 0.000 6.862 29.816 -26.635 
24 1 1 0.000 22.131 5.209 21.818 
25 1 1 0.000 -5.221 29.828 -1.948 
26 1 1 0.000 28.490 12.443 16.246 
27 1 1 0.000 -8.008 -17.446 21.057 
28 1 1 0.000 10.386 12.189 -26.642 
29 1 1 0.000 -18.274 28.907 12.768 
30 1 1 0.000 26.672 -21.566 -26.583 
31 1 1 0.000 29.633 -16.853 -28.592 
32 1 1 0.000 6.211 8.300 25.148 
33 1 1 0.000 12.247 29.947 6.033 
34 1 1 0.000 19.731 27.485 7.502 
35 1 1 0.000 -7.190 -3.011 -1.901 
36 1 1 0.000 21.495 25.307 -20.384 
37 1 1 0.000 -27.964 15.023 20.811 
38 1 1 0.000 17.968 -13.925 6.842 
39 1 1 0.000 -22.961 -22.292 3.156 
40 1 1 0.000 11.538 -25.877 23.976 
41 1 1 0.000 10.483 25.682 -9.096 
42 1 1 0.000 4.383 -16.940 -25.251 
43 1 1 0.000 12.173 12.129 -9.202 
44 1 1 0.000 9.422 -4.616 -20.923 
45 1 1 0.000 4.012 -7.095 23.472 
46 1 1 0.000 -17.129 5.349 3.604 
47 1 1 0.000 23.725 2.032 -20.237 
48 1 1 0.000 19.908 -12.749 -4.576 
49 1 1 0.000 22.682 11.316 -11.061 
50 1 1 0.000 13.480 -24.938 0.589 

Velocities

1 0.000 -0.002 0.001 
2 0.001 -0.002 0.002 
3 0.004 -0.000 0.003 
4 0.004 -0.001 -0.003 
5 0.003 0.002 -0.001 
6 -0.000 0.002 0.003 
7 0.001 0.001 0.001 
8 -0.000 0.001 -0.002 
9 0.000 0.001 -0.001 
10 0.004 -0.003 0.001 
11 -0.003 0.004 0.002 
12 -0.001 -0.001 0.001 
13 -0.000 -0.003 -0.002 
14 -0.001 0.004 0.004 
15 -0.002 0.001 -0.001 
16 -0.000 0.001 0.001 
17 -0.002 0.002 0.000 
18 -0.000 0.001 -0.001 
19 0.000 -0.000 -0.002 
20 0.002 -0.000 -0.001 
21 0.002 0.003 0.001 
22 0.002 -0.002 -0.002 
23 -0.000 0.002 -0.001 
24 -0.001 -0.002 0.001 
25 0.001 -0.002 -0.003 
26 0.004 -0.001 0.001 
27 -0.004 0.002 0.004 
28 0.001 0.003 -0.005 
29 -0.002 -0.001 0.000 
30 -0.003 -0.001 0.001 
31 0.003 -0.003 0.003 
32 -0.003 0.001 0.001 
33 0.004 0.001 0.002 
34 -0.002 -0.002 -0.003 
35 -0.002 0.001 -0.001 
36 0.002 -0.001 0.001 
37 0.000 -0.001 0.001 
38 0.001 0.002 -0.001 
39 0.002 0.000 -0.001 
40 0.000 -0.002 0.002 
41 -0.002 -0.000 -0.001 
42 0.002 0.002 0.002 
43 0.000 0.000 0.004 
44 0.003 0.005 -0.003 
45 0.001 -0.003 -0.002 
46 0.002 0.002 -0.000 
47 0.001 -0.001 0.001 
48 -0.001 0.002 -0.001 
49 -0.001 -0.002 0.001 
50 -0.000 -0.002 0.000 
