# LAMMPS data file 

50 atoms
1 atom types

-5.661 5.661 xlo xhi
-5.661 5.661 ylo yhi
-5.661 5.661 zlo zhi

Atoms

1 1 1 0.000 -3.810 0.073 1.486 
2 1 1 0.000 -4.452 2.913 -1.033 
3 1 1 0.000 1.656 -2.573 0.616 
4 1 1 0.000 1.755 -0.693 -3.118 
5 1 1 0.000 2.495 -1.024 -0.546 
6 1 1 0.000 -4.286 -4.983 3.365 
7 1 1 0.000 -5.474 -1.541 -5.547 
8 1 1 0.000 0.398 0.726 2.453 
9 1 1 0.000 -5.516 -1.968 -5.023 
10 1 1 0.000 0.617 -3.714 3.359 
11 1 1 0.000 5.495 1.434 -4.455 
12 1 1 0.000 -2.157 3.257 4.489 
13 1 1 0.000 -4.856 3.852 -3.883 
14 1 1 0.000 5.299 4.854 -2.212 
15 1 1 0.000 -4.005 -0.398 -2.984 
16 1 1 0.000 -2.369 3.234 3.437 
17 1 1 0.000 -3.953 1.629 -2.923 
18 1 1 0.000 -2.871 2.411 4.545 
19 1 1 0.000 1.744 -3.817 0.151 
20 1 1 0.000 3.451 -5.186 5.149 
21 1 1 0.000 -4.340 -5.161 -3.792 
22 1 1 0.000 5.436 -4.343 -1.300 
23 1 1 0.000 3.246 4.234 1.641 
24 1 1 0.000 4.774 5.487 -2.573 
25 1 1 0.000 4.523 -2.095 5.078 
26 1 1 0.000 -4.604 2.664 1.573 
27 1 1 0.000 -0.659 -2.550 0.891 
28 1 1 0.000 -2.372 4.010 -5.122 
29 1 1 0.000 2.732 -3.238 1.815 
30 1 1 0.000 -2.041 4.371 -2.389 
31 1 1 0.000 1.764 -1.359 -5.039 
32 1 1 0.000 -4.218 4.561 2.726 
33 1 1 0.000 -2.848 4.826 0.460 
34 1 1 0.000 2.484 -5.083 5.323 
35 1 1 0.000 -0.940 -2.747 -1.526 
36 1 1 0.000 2.276 3.890 -2.811 
37 1 1 0.000 4.412 2.106 -1.714 
38 1 1 0.000 -1.564 5.012 -2.146 
39 1 1 0.000 -0.320 -3.417 -4.186 
40 1 1 0.000 -2.385 0.551 -3.901 
41 1 1 0.000 -5.463 -4.868 -0.031 
42 1 1 0.000 -4.561 -4.337 1.951 
43 1 1 0.000 4.842 4.737 -2.388 
44 1 1 0.000 -2.432 -2.222 5.187 
45 1 1 0.000 -1.596 1.956 1.068 
46 1 1 0.000 -3.498 5.364 -4.584 
47 1 1 0.000 -4.334 2.653 -1.499 
48 1 1 0.000 5.257 -5.157 4.192 
49 1 1 0.000 2.358 -1.556 2.998 
50 1 1 0.000 1.739 4.172 0.435 

Velocities

1 -0.002 -0.019 0.000 
2 -0.004 -0.005 0.004 
3 0.004 -0.014 -0.008 
4 0.004 -0.004 0.006 
5 0.008 0.009 -0.001 
6 0.003 -0.010 -0.023 
7 -0.008 -0.006 -0.004 
8 -0.001 -0.009 0.006 
9 0.010 -0.005 -0.008 
10 0.012 0.002 -0.018 
11 0.019 -0.010 -0.012 
12 0.007 0.007 -0.011 
13 0.011 0.002 0.009 
14 0.012 0.011 0.016 
15 0.002 0.003 0.015 
16 -0.012 -0.001 -0.010 
17 0.002 0.002 0.011 
18 -0.005 0.005 -0.004 
19 0.018 0.018 -0.011 
20 -0.005 -0.003 0.010 
21 0.003 -0.010 0.020 
22 -0.004 0.004 0.002 
23 -0.006 -0.002 -0.009 
24 0.007 -0.002 -0.008 
25 0.007 0.005 -0.008 
26 0.004 -0.002 0.009 
27 -0.007 -0.002 0.001 
28 0.000 0.007 -0.003 
29 -0.006 0.007 -0.005 
30 0.009 0.001 0.008 
31 -0.012 0.005 -0.013 
32 0.016 0.002 0.002 
33 0.007 -0.001 0.004 
34 -0.013 -0.001 -0.021 
35 -0.005 -0.010 -0.001 
36 0.015 -0.009 -0.020 
37 0.015 -0.000 -0.017 
38 0.009 0.020 0.004 
39 -0.001 -0.005 0.012 
40 -0.016 -0.001 0.013 
41 0.006 0.006 -0.001 
42 0.004 -0.003 0.009 
43 -0.006 -0.007 0.001 
44 -0.017 0.001 0.010 
45 0.012 -0.012 -0.005 
46 -0.001 0.006 -0.005 
47 -0.004 -0.003 -0.017 
48 -0.006 0.008 0.003 
49 0.008 -0.004 0.006 
50 0.008 -0.000 0.000 
