LAMMPS (2 Aug 2023 - Update 1)
# LAMMPS input file

include variable.lammps
# LAMMPS variable file

variable thermo equal 200
variable dump equal 1000
variable thermo_minimize equal 25
variable dumping_minimize equal 10
variable time_step equal 1.0
variable minimization_steps equal 0
variable maximum_steps equal 0
variable temp equal 100.64390669975316
variable tau_temp equal 100.0
variable pber equal 0

# main parameters
units real
dimension 3
atom_style full
pair_style lj/cut 10 # /coul/long
#kspace_style ewald 1e-4
boundary p p p

read_data initial.data
Reading data file ...
  orthogonal box = (-5.661 -5.661 -5.661) to (5.661 5.661 5.661)
  1 by 1 by 1 MPI processor grid
  reading atoms ...
  50 atoms
  reading velocities ...
  50 velocities
Finding 1-2 1-3 1-4 neighbors ...
  special bond factors lj:    0        0        0       
  special bond factors coul:  0        0        0       
     0 = max # of 1-2 neighbors
     0 = max # of 1-3 neighbors
     0 = max # of 1-4 neighbors
     1 = max # of special neighbors
  special bonds CPU = 0.000 seconds
  read_data CPU = 0.002 seconds
include PARM.lammps
# LAMMPS parameter file

mass 1 1.0

pair_coeff 1 1 0.1 3.0


neigh_modify every 10

thermo ${thermo_minimize}
thermo 25
dump mydmp all custom ${dumping_minimize} lammps-output/dump.md.lammpstrj id type x y z vx vy vz
dump mydmp all custom 10 lammps-output/dump.md.lammpstrj id type x y z vx vy vz
min_style sd
minimize 1.0e-10 1.0e-10 50 50 #${minimization_steps} ${minimization_steps}
Switching to 'neigh_modify every 1 delay 0 check yes' setting during minimization
Generated 0 of 0 mixed pair_coeff terms from geometric mixing rule
Neighbor list info ...
  update: every = 1 steps, delay = 0 steps, check = yes
  max neighbors/atom: 2000, page size: 100000
  master list distance cutoff = 12
  ghost atom cutoff = 12
  binsize = 6, bins = 2 2 2
  1 neighbor lists, perpetual/occasional/extra = 1 0 0
  (1) pair lj/cut, perpetual
      attributes: half, newton on
      pair build: half/bin/newton
      stencil: half/bin/3d
      bin: standard
Per MPI rank memory allocation (min/avg/max) = 7.116 | 7.116 | 7.116 Mbytes
   Step          Temp          E_pair         E_mol          TotEng         Press     
         0   100.7832       1.1305061e+09  0              1.1305061e+09  2.1364582e+11
        25   100.7832       38.507715      0              53.228079      17598.486    
        42   100.7832      -27.455844      0             -12.735481      2195.4588    
Loop time of 0.00962934 on 1 procs for 42 steps with 50 atoms

94.0% CPU use with 1 MPI tasks x no OpenMP threads

Minimization stats:
  Stopping criterion = max force evaluations
  Energy initial, next-to-last, final = 
       1130506063.9154  -26.8322215269582  -27.4558443383428
  Force two-norm initial, final = 2.8558278e+10 3.2019255
  Force max component initial, final = 1.7327864e+10 0.92372288
  Final line search alpha, max atom move = 0.054869811 0.0506845
  Iterations, force evaluations = 42 51

MPI task timing breakdown:
Section |  min time  |  avg time  |  max time  |%varavg| %total
---------------------------------------------------------------
Pair    | 0.0073727  | 0.0073727  | 0.0073727  |   0.0 | 76.57
Bond    | 4.184e-06  | 4.184e-06  | 4.184e-06  |   0.0 |  0.04
Neigh   | 0.0010274  | 0.0010274  | 0.0010274  |   0.0 | 10.67
Comm    | 0.00052649 | 0.00052649 | 0.00052649 |   0.0 |  5.47
Output  | 0.00043653 | 0.00043653 | 0.00043653 |   0.0 |  4.53
Modify  | 0          | 0          | 0          |   0.0 |  0.00
Other   |            | 0.000262   |            |       |  2.72

Nlocal:             50 ave          50 max          50 min
Histogram: 1 0 0 0 0 0 0 0 0 0
Nghost:           1471 ave        1471 max        1471 min
Histogram: 1 0 0 0 0 0 0 0 0 0
Neighs:           6247 ave        6247 max        6247 min
Histogram: 1 0 0 0 0 0 0 0 0 0

Total # of neighbors = 6247
Ave neighs/atom = 124.94
Ave special neighs/atom = 0
Neighbor list builds = 3
Dangerous builds = 0
min_style cg
undump mydmp
reset_timestep 0

velocity all create ${temp} 4928459
velocity all create 100.643906699753 4928459
fix mynve all nve
fix mytber all temp/berendsen ${temp} ${temp} ${tau_temp}
fix mytber all temp/berendsen 100.643906699753 ${temp} ${tau_temp}
fix mytber all temp/berendsen 100.643906699753 100.643906699753 ${tau_temp}
fix mytber all temp/berendsen 100.643906699753 100.643906699753 100
if "${pber} == 1" then "fix mypber all press/berendsen iso ${press} ${press} ${tau_press} modulus 1"
timestep ${time_step}
timestep 1

thermo ${thermo}
thermo 200
dump mydmp all custom ${dump} lammps-output/dump.md.lammpstrj id type x y z vx vy vz
dump mydmp all custom 1000 lammps-output/dump.md.lammpstrj id type x y z vx vy vz

variable Ecoul equal ecoul
variable Evdwl equal evdwl
variable Epot equal pe
variable Ekin equal ke
variable Etot equal v_Epot+v_Ekin
variable volume equal vol
variable pressure equal press
variable temperature equal temp
variable mass equal mass(all)
variable density equal v_mass/v_volume/6.022e23*(1e8)^3 # g/cm3
fix myat1 all ave/time ${thermo} 1 ${thermo} v_Epot file lammps-output/Epot.dat
fix myat1 all ave/time 200 1 ${thermo} v_Epot file lammps-output/Epot.dat
fix myat1 all ave/time 200 1 200 v_Epot file lammps-output/Epot.dat
fix myat2 all ave/time ${thermo} 1 ${thermo} v_Ekin file lammps-output/Ekin.dat
fix myat2 all ave/time 200 1 ${thermo} v_Ekin file lammps-output/Ekin.dat
fix myat2 all ave/time 200 1 200 v_Ekin file lammps-output/Ekin.dat
fix myat3 all ave/time ${thermo} 1 ${thermo} v_Etot file lammps-output/Etot.dat
fix myat3 all ave/time 200 1 ${thermo} v_Etot file lammps-output/Etot.dat
fix myat3 all ave/time 200 1 200 v_Etot file lammps-output/Etot.dat
fix myat4 all ave/time ${thermo} 1 ${thermo} v_Ecoul file lammps-output/Ecoul.dat
fix myat4 all ave/time 200 1 ${thermo} v_Ecoul file lammps-output/Ecoul.dat
fix myat4 all ave/time 200 1 200 v_Ecoul file lammps-output/Ecoul.dat
fix myat5 all ave/time ${thermo} 1 ${thermo} v_Evdwl file lammps-output/Evdwl.dat
fix myat5 all ave/time 200 1 ${thermo} v_Evdwl file lammps-output/Evdwl.dat
fix myat5 all ave/time 200 1 200 v_Evdwl file lammps-output/Evdwl.dat
fix myat6 all ave/time ${thermo} 1 ${thermo} v_pressure file lammps-output/pressure.dat
fix myat6 all ave/time 200 1 ${thermo} v_pressure file lammps-output/pressure.dat
fix myat6 all ave/time 200 1 200 v_pressure file lammps-output/pressure.dat
fix myat7 all ave/time ${thermo} 1 ${thermo} v_temperature file lammps-output/temperature.dat
fix myat7 all ave/time 200 1 ${thermo} v_temperature file lammps-output/temperature.dat
fix myat7 all ave/time 200 1 200 v_temperature file lammps-output/temperature.dat
fix myat8 all ave/time ${thermo} 1 ${thermo} v_volume file lammps-output/volume.dat
fix myat8 all ave/time 200 1 ${thermo} v_volume file lammps-output/volume.dat
fix myat8 all ave/time 200 1 200 v_volume file lammps-output/volume.dat
fix myat9 all ave/time ${thermo} 1 ${thermo} v_density file lammps-output/density.dat
fix myat9 all ave/time 200 1 ${thermo} v_density file lammps-output/density.dat
fix myat9 all ave/time 200 1 200 v_density file lammps-output/density.dat

run 20000 # ${maximum_steps}
Generated 0 of 0 mixed pair_coeff terms from geometric mixing rule
Per MPI rank memory allocation (min/avg/max) = 5.991 | 5.991 | 5.991 Mbytes
   Step          Temp          E_pair         E_mol          TotEng         Press     
         0   100.64391     -27.455844      0             -12.755826      2194.818     
       200   110.52646     -26.890279      0             -10.746818      2271.3502    
       400   100.29498     -23.891156      0             -9.2421029      2910.8574    
       600   99.876665     -23.125473      0             -8.5375177      3035.9782    
       800   95.753056     -22.903435      0             -8.9177726      3061.557     
      1000   99.193616     -24.099952      0             -9.6117625      2849.2565    
      1200   114.83988     -26.443058      0             -9.6695808      2301.3007    
      1400   96.951515     -24.153177      0             -9.9924684      2788.2567    
      1600   104.09556     -24.662404      0             -9.4582388      2646.4772    
      1800   112.10924     -25.965177      0             -9.5905364      2475.8584    
      2000   95.183922     -24.288886      0             -10.386352      2847.0404    
      2200   85.763828     -22.453369      0             -9.9267309      3188.589     
      2400   114.53097     -26.995438      0             -10.26708       2211.8527    
      2600   106.58358     -26.135328      0             -10.567763      2446.4926    
      2800   103.81266     -25.106591      0             -9.9437457      2585.3843    
      3000   97.210504     -24.620318      0             -10.421781      2661.6991    
      3200   97.617426     -24.344826      0             -10.086855      2766.7723    
      3400   103.63977     -24.733353      0             -9.5957598      2782.3412    
      3600   94.725844     -23.858284      0             -10.022656      2866.9319    
      3800   100.28296     -24.791595      0             -10.144296      2629.0098    
      4000   87.061712     -22.452778      0             -9.7365715      3141.797     
      4200   93.545657     -23.731688      0             -10.068438      2916.3476    
      4400   106.66544     -25.409651      0             -9.8301292      2556.1191    
      4600   72.356543     -20.114376      0             -9.5460015      3606.2466    
      4800   99.06991      -24.814024      0             -10.343903      2669.0259    
      5000   97.490223     -24.410321      0             -10.170929      2678.7337    
      5200   98.276579     -24.403802      0             -10.049555      2634.8809    
      5400   94.955966     -23.586427      0             -9.7171876      2969.8325    
      5600   105.01481     -24.609969      0             -9.2715375      2767.7293    
      5800   118.8047      -27.574666      0             -10.222088      2056.084     
      6000   99.494028     -24.509251      0             -9.9771842      2726.6706    
      6200   97.175282     -23.897419      0             -9.7040275      2901.773     
      6400   92.215385     -23.380203      0             -9.9112519      2912.9434    
      6600   80.574748     -21.267414      0             -9.4986905      3430.8336    
      6800   112.94564     -26.667395      0             -10.17059       2317.6494    
      7000   95.641511     -23.876866      0             -9.9074961      2961.2403    
      7200   89.931648     -23.030253      0             -9.8948637      2958.6826    
      7400   94.847246     -23.573075      0             -9.7197155      2906.655     
      7600   103.69448     -25.083022      0             -9.9374381      2571.1706    
      7800   100.05468     -25.123443      0             -10.509487      2594.2225    
      8000   99.323484     -24.440321      0             -9.9331631      2769.1505    
      8200   84.787915     -22.263078      0             -9.8789816      3307.8069    
      8400   103.31096     -25.159476      0             -10.069908      2589.7519    
      8600   100.77182     -24.929876      0             -10.211175      2694.9684    
      8800   97.613114     -24.241005      0             -9.9836635      2749.3769    
      9000   93.948612     -23.80644       0             -10.084335      2898.0978    
      9200   99.458011     -24.703708      0             -10.176902      2667.9735    
      9400   104.91945     -25.609751      0             -10.285248      2505.7928    
      9600   96.833607     -24.579381      0             -10.435894      2679.7251    
      9800   89.81367      -21.457033      0             -8.3388764      3477.0623    
     10000   92.443783     -23.041406      0             -9.5390953      3074.1463    
     10200   106.85242     -24.981482      0             -9.3746504      2673.4865    
     10400   96.057509     -23.543547      0             -9.513417       3004.1909    
     10600   106.27156     -24.55785       0             -9.0358588      2774.9499    
     10800   111.37952     -26.371195      0             -10.103138      2374.3677    
     11000   105.02687     -24.177446      0             -8.8372546      2871.2765    
     11200   103.97925     -24.897425      0             -9.710248       2602.2861    
     11400   100.34984     -25.03626       0             -10.379193      2613.1377    
     11600   96.435376     -24.281452      0             -10.196131      2740.3022    
     11800   97.986633     -23.490029      0             -9.1781314      2940.4673    
     12000   104.82711     -24.408815      0             -9.0977997      2765.1855    
     12200   106.01885     -24.534435      0             -9.0493539      2753.9363    
     12400   103.34756     -24.832667      0             -9.7377539      2648.9624    
     12600   86.418974     -22.336341      0             -9.714012       3188.0326    
     12800   102.92555     -23.888763      0             -8.8554893      2831.7309    
     13000   97.225207     -22.996183      0             -8.7954996      3051.6755    
     13200   102.78648     -24.462342      0             -9.4493796      2687.2774    
     13400   105.19557     -25.382096      0             -10.017264      2573.7769    
     13600   103.66655     -25.369389      0             -10.227884      2550.9408    
     13800   110.90086     -26.939659      0             -10.741514      2189.8175    
     14000   83.563573     -22.295886      0             -10.090616      3196.3232    
     14200   105.6737      -24.996413      0             -9.5617453      2758.2231    
     14400   109.88825     -25.624056      0             -9.5738114      2520.892     
     14600   100.05977     -24.363088      0             -9.7483889      2812.879     
     14800   104.39933     -25.055292      0             -9.8067585      2534.2578    
     15000   110.3159      -26.100553      0             -9.9878467      2448.0829    
     15200   96.179834     -23.317291      0             -9.2692938      2965.6735    
     15400   108.26779     -25.381151      0             -9.5675906      2590.1037    
     15600   105.11197     -25.295945      0             -9.9433231      2569.4387    
     15800   95.670742     -23.852475      0             -9.8788358      2854.6167    
     16000   89.593602     -22.819746      0             -9.7337322      3085.3199    
     16200   103.18345     -24.90805       0             -9.8371066      2697.3852    
     16400   116.05588     -27.045332      0             -10.094246      2130.9359    
     16600   88.075615     -23.298691      0             -10.434394      3052.8096    
     16800   95.364876     -23.956887      0             -10.027923      2909.6084    
     17000   105.94621     -25.036428      0             -9.561957       2665.2113    
     17200   97.90726      -23.929377      0             -9.6290729      2879.1876    
     17400   113.15688     -26.137067      0             -9.609408       2375.6376    
     17600   94.624728     -23.534696      0             -9.7138375      3061.0199    
     17800   99.497748     -23.554047      0             -9.0214367      2943.3205    
     18000   100.10052     -23.374331      0             -8.7536805      3010.1086    
     18200   102.56472     -24.727699      0             -9.7471285      2676.7356    
     18400   101.56985     -24.777551      0             -9.9422897      2680.8494    
     18600   95.691873     -23.896219      0             -9.9194938      2813.8275    
     18800   99.000538     -22.862621      0             -8.402633       3134.7861    
     19000   100.52872     -23.6101        0             -8.926906       2948.0093    
     19200   108.37955     -25.613439      0             -9.7835546      2505.7629    
     19400   89.072084     -22.683981      0             -9.6741397      3235.1916    
     19600   93.841874     -22.779167      0             -9.0726518      3164.3412    
     19800   125.06912     -27.334548      0             -9.0669917      2143.7837    
     20000   89.853413     -22.719812      0             -9.5958507      3181.9817    
Loop time of 1.87756 on 1 procs for 20000 steps with 50 atoms

Performance: 920.343 ns/day, 0.026 hours/ns, 10652.112 timesteps/s, 532.606 katom-step/s
99.9% CPU use with 1 MPI tasks x no OpenMP threads

MPI task timing breakdown:
Section |  min time  |  avg time  |  max time  |%varavg| %total
---------------------------------------------------------------
Pair    | 1.5404     | 1.5404     | 1.5404     |   0.0 | 82.04
Bond    | 0.0011195  | 0.0011195  | 0.0011195  |   0.0 |  0.06
Neigh   | 0.13522    | 0.13522    | 0.13522    |   0.0 |  7.20
Comm    | 0.14374    | 0.14374    | 0.14374    |   0.0 |  7.66
Output  | 0.0026895  | 0.0026895  | 0.0026895  |   0.0 |  0.14
Modify  | 0.03415    | 0.03415    | 0.03415    |   0.0 |  1.82
Other   |            | 0.02027    |            |       |  1.08

Nlocal:             50 ave          50 max          50 min
Histogram: 1 0 0 0 0 0 0 0 0 0
Nghost:           1474 ave        1474 max        1474 min
Histogram: 1 0 0 0 0 0 0 0 0 0
Neighs:           6282 ave        6282 max        6282 min
Histogram: 1 0 0 0 0 0 0 0 0 0

Total # of neighbors = 6282
Ave neighs/atom = 125.64
Ave special neighs/atom = 0
Neighbor list builds = 454
Dangerous builds = 0
Total wall time: 0:00:01
